#Units: real
#AtomStyle: full
#FF: OPLS-AA

     10979 atoms
      8968 bonds
     13826 angles
      2464 dihedrals
        44 impropers

        10 atom types
         7 bond types
        12 angle types
        13 dihedral types
         1 improper types

    0.000000000000000   51.316199999999994 xlo xhi
    0.000000000000000   51.316199999999994 ylo yhi
    0.000000000000000   51.316199999999994 zlo zhi

Masses

     1               12.011 # opls_135
     2               12.011 # opls_136
     3                1.008 # opls_140
     4               12.011 # opls_465
     5              15.9994 # opls_466
     6              15.9994 # opls_467
     7               12.011 # opls_468
     8               12.011 # opls_139
     9               12.011 # opls_962
    10              18.9984 # opls_965

Pair Coeffs

     1    0.066000000000000    3.500000000000000 # opls_135
     2    0.066000000000000    3.500000000000000 # opls_136
     3    0.030000000000000    2.500000000000000 # opls_140
     4    0.105000000000000    3.750000000000000 # opls_465
     5    0.210000000000000    2.960000000000000 # opls_466
     6    0.170000000000000    3.000000000000000 # opls_467
     7    0.066000000000000    3.500000000000000 # opls_468
     8    0.066000000000000    3.500000000000000 # opls_139
     9    0.1085086   3.1500000000000000 # opls_962
    10    0.087476    2.94 # opls_965

Bond Coeffs

     1 267.999999999999940    1.529000000000000
     2 340.000000000000000    1.090000000000000
     3 317.000000000000000    1.522000000000000
     4 570.000000000000000    1.229000000000000
     5 214.000000000000000    1.327000000000000
     6 320.000000000000000    1.410000000000000
     7 367.000000000000000    1.332000000000000

Angle Coeffs

     1 58.350023900573619  112.700000000000000
     2 37.500000000000000  110.700000000000000
     3 33.000000000000000  107.800000000000000
     4 80.000000000000000  120.400000000000000
     5 81.000000000000000  111.400000000000000
     6 35.000000000000000  109.500000000000000
     7 83.000000000000000  116.900000000000000
     8 83.000000000000000  123.400000000000000
     9 49.999999999999994  109.500000000000000
    10 62.999999999999987  111.100000000000000
    11 59.73230000000000  108.600000000000000
    12 87.860898  108.700000000000000

Dihedral Coeffs

     1 0.000000000000000    0.000000000000000    0.300000000000000    0.000000000000000
     2 1.300000000000000   -0.050000000000000    0.200000000000000    0.000000000000000
     3 4.668996175908222    5.123998565965583    0.000000000000000    0.000000000000000
     4 0.000004780114723    0.000000000000000   -0.075999043977055    0.000000000000000
     5 -1.219997609942639   -0.126001434034417    0.422000478011472    0.000000000000000
     6 -0.000002390057361    0.000000000000000    0.197999521988528    0.000000000000000
     7 0.000000000000000    0.000000000000000    0.000000000000000    0.000000000000000
     8 -0.000002390057361    0.000000000000000    0.132000478011472    0.000000000000000
     9 0.000000000000000    5.123998565965583    0.000000000000000    0.000000000000000
    10 1.711000239005736   -0.500000000000000    0.663000717017208    0.000000000000000
    11 0.000002390057361    0.000000000000000   -0.552999521988528    0.000000000000000
    12 -1.697002868068834   -0.455999043977055    0.585000000000000    0.000000000000000
    13 -0.276999282982792    1.227999521988528   -0.693999760994264    0.000000000000000

Improper Coeffs

     1 10.500000000000000 -1 2

Atoms

     1     1     1             -0.18000   31.600000000000000   33.190000000000000   23.560000000000000
     2     1     2             -0.12000   30.220000000000000   33.860000000000000   23.720000000000000
     3     1     3              0.06000   31.480000000000000   32.200000000000000   23.100000000000000
     4     1     3              0.06000   32.080000000000000   33.060000000000000   24.529999999999997
     5     1     3              0.06000   32.250000000000000   33.790000000000000   22.919999999999997
     6     1     2             -0.12000   30.350000000000000   35.260000000000000   24.360000000000000
     7     1     3              0.06000   29.580000000000000   33.230000000000000   24.340000000000003
     8     1     3              0.06000   29.750000000000000   33.950000000000000   22.740000000000003
     9     1     2             -0.12000   28.970000000000000   35.920000000000000   24.520000000000000
    10     1     3              0.06000   30.990000000000000   35.890000000000000   23.740000000000003
    11     1     3              0.06000   30.830000000000000   35.170000000000000   25.339999999999997
    12     1     2             -0.12000   29.060000000000000   37.320000000000000   25.169999999999997
    13     1     3              0.06000   28.330000000000003   35.280000000000000   25.130000000000000
    14     1     3              0.06000   28.500000000000000   36.010000000000000   23.540000000000000
    15     1     4              0.51000   27.700000000000000   37.970000000000000   25.320000000000000
    16     1     3              0.06000   29.700000000000000   37.960000000000000   24.570000000000000
    17     1     3              0.06000   29.520000000000000   37.240000000000000   26.160000000000000
    18     1     5             -0.43000   26.660000000000000   37.440000000000006   25.000000000000000
    19     1     6             -0.33000   27.799999999999997   39.230000000000006   25.810000000000000
    20     1     7              0.16000   26.560000000000003   39.980000000000006   25.930000000000000
    21     1     8              0.00000   26.780000000000000   41.420000000000000   26.460000000000000
    22     1     3              0.06000   25.880000000000003   39.440000000000000   26.600000000000000
    23     1     3              0.06000   26.090000000000000   40.039999999999994   24.940000000000000
    24     1     7              0.16000   25.410000000000000   42.130000000000000   26.450000000000000
    25     1     6             -0.33000   25.490000000000000   43.490000000000000   26.960000000000000
    26     1     3              0.06000   25.019999999999997   42.160000000000006   25.419999999999997
    27     1     3              0.06000   24.700000000000003   41.570000000000000   27.070000000000000
    28     1     4              0.51000   24.350000000000000   44.220000000000000   26.960000000000000
    29     1     5             -0.43000   23.279999999999997   43.819999999999994   26.549999999999997
    30     1     2             -0.12000   24.540000000000003   45.599999999999994   27.549999999999997
    31     1     2             -0.12000   23.450000000000003   45.919999999999994   28.590000000000000
    32     1     3              0.06000   24.510000000000000   46.330000000000000   26.730000000000000
    33     1     3              0.06000   25.520000000000000   45.670000000000000   28.010000000000000
    34     1     2             -0.12000   23.599999999999997   47.350000000000000   29.150000000000000
    35     1     3              0.06000   23.500000000000000   45.199999999999994   29.409999999999994
    36     1     3              0.06000   22.460000000000000   45.820000000000000   28.130000000000003
    37     1     2             -0.12000   22.500000000000000   47.659999999999994   30.190000000000000
    38     1     3              0.06000   23.540000000000000   48.070000000000006   28.330000000000003
    39     1     3              0.06000   24.590000000000000   47.460000000000006   29.610000000000000
    40     1     1             -0.18000   22.630000000000000   49.100000000000000   30.720000000000000
    41     1     3              0.06000   22.579999999999997   46.959999999999994   31.020000000000000
    42     1     3              0.06000   21.520000000000003   47.530000000000000   29.730000000000000
    43     1     3              0.06000   23.599999999999997   49.260000000000006   31.190000000000000
    44     1     3              0.06000   21.850000000000000   49.300000000000000   31.450000000000000
    45     1     3              0.06000   22.519999999999997   49.820000000000000   29.900000000000000
    46     1     7              0.16000   27.360000000000003   41.379999999999994   27.900000000000000
    47     1     6             -0.33000   26.450000000000000   40.739999999999994   28.830000000000000
    48     1     3              0.06000   27.549999999999997   42.400000000000006   28.240000000000000
    49     1     3              0.06000   28.300000000000000   40.820000000000000   27.900000000000000
    50     1     4              0.51000   26.829999999999997   40.679999999999994   30.130000000000000
    51     1     5             -0.43000   27.880000000000000   41.110000000000000   30.560000000000000
    52     1     2             -0.12000   25.750000000000000   40.099999999999994   31.020000000000000
    53     1     2             -0.12000   26.329999999999997   39.030000000000000   31.980000000000000
    54     1     3              0.06000   24.970000000000000   39.650000000000000   30.410000000000000
    55     1     3              0.06000   25.299999999999997   40.910000000000006   31.589999999999994
    56     1     2             -0.12000   25.240000000000003   38.490000000000000   32.940000000000000
    57     1     3              0.06000   27.140000000000000   39.470000000000000   32.570000000000000
    58     1     3              0.06000   26.750000000000000   38.210000000000000   31.400000000000000
    59     1     2             -0.12000   25.820000000000000   37.420000000000000   33.890000000000000
    60     1     3              0.06000   24.420000000000003   38.070000000000000   32.360000000000000
    61     1     3              0.06000   24.840000000000000   39.320000000000000   33.530000000000000
    62     1     1             -0.18000   24.750000000000000   36.909999999999994   34.870000000000006
    63     1     3              0.06000   26.660000000000000   37.830000000000000   34.449999999999994
    64     1     3              0.06000   26.200000000000003   36.580000000000000   33.300000000000000
    65     1     3              0.06000   24.380000000000003   37.730000000000006   35.500000000000000
    66     1     3              0.06000   25.169999999999997   36.140000000000000   35.520000000000000
    67     1     3              0.06000   23.900000000000003   36.480000000000006   34.330000000000000
    68     1     7              0.16000   27.790000000000000   42.190000000000006   25.570000000000000
    69     1     6             -0.33000   27.360000000000003   42.230000000000000   24.180000000000000
    70     1     3              0.06000   28.769999999999997   41.700000000000000   25.619999999999997
    71     1     3              0.06000   27.890000000000000   43.220000000000000   25.939999999999997
    72     1     4              0.51000   28.110000000000000   42.940000000000000   23.320000000000000
    73     1     2             -0.12000   27.680000000000000   42.740000000000000   21.880000000000003
    74     1     2             -0.12000   28.850000000000000   42.330000000000000   20.960000000000000
    75     1     3              0.06000   27.250000000000000   43.680000000000006   21.520000000000003
    76     1     3              0.06000   26.890000000000000   41.989999999999994   21.820000000000000
    77     1     5             -0.43000   29.089999999999994   43.590000000000006   23.630000000000000
    78     1     2             -0.12000   29.440000000000000   40.960000000000000   21.349999999999997
    79     1     3              0.06000   29.640000000000000   43.090000000000006   21.009999999999997
    80     1     3              0.06000   28.500000000000000   42.300000000000006   19.930000000000000
    81     1     2             -0.12000   30.610000000000000   40.570000000000006   20.419999999999997
    82     1     3              0.06000   28.660000000000000   40.190000000000000   21.280000000000000
    83     1     3              0.06000   29.790000000000000   40.980000000000000   22.380000000000000
    84     1     1             -0.18000   31.200000000000000   39.200000000000000   20.800000000000000
    85     1     3              0.06000   31.400000000000000   41.330000000000000   20.490000000000000
    86     1     3              0.06000   30.270000000000000   40.540000000000006   19.380000000000000
    87     1     3              0.06000   31.570000000000000   39.210000000000000   21.829999999999997
    88     1     3              0.06000   32.030000000000000   38.950000000000000   20.139999999999997
    89     1     3              0.06000   30.440000000000000   38.420000000000000   20.710000000000000
    90     2     1             -0.18000   36.250000000000000   33.130000000000000   19.720000000000000
    91     2     2             -0.12000   35.089999999999994   34.080000000000000   20.070000000000000
    92     2     3              0.06000   36.050000000000000   32.640000000000000   18.759999999999997
    93     2     3              0.06000   36.349999999999994   32.360000000000000   20.490000000000000
    94     2     3              0.06000   37.190000000000000   33.670000000000000   19.640000000000000
    95     2     2             -0.12000   35.339999999999994   34.790000000000000   21.419999999999997
    96     2     3              0.06000   34.159999999999994   33.519999999999994   20.120000000000000
    97     2     3              0.06000   34.990000000000000   34.830000000000000   19.280000000000000
    98     2     2             -0.12000   34.180000000000000   35.750000000000000   21.760000000000000
    99     2     3              0.06000   36.269999999999994   35.360000000000000   21.370000000000000
   100     2     3              0.06000   35.440000000000000   34.050000000000000   22.210000000000000
   101     2     2             -0.12000   34.390000000000000   36.460000000000000   23.110000000000000
   102     2     3              0.06000   33.239999999999994   35.180000000000000   21.790000000000000
   103     2     3              0.06000   34.080000000000000   36.490000000000000   20.970000000000000
   104     2     4              0.51000   33.250000000000000   37.410000000000006   23.439999999999997
   105     2     3              0.06000   35.330000000000000   37.030000000000000   23.090000000000003
   106     2     3              0.06000   34.480000000000000   35.730000000000000   23.910000000000000
   107     2     5             -0.43000   32.269999999999994   37.550000000000000   22.750000000000000
   108     2     6             -0.33000   33.480000000000000   38.100000000000000   24.580000000000003
   109     2     7              0.16000   32.490000000000000   39.089999999999994   24.960000000000000
   110     2     8              0.00000   32.870000000000000   39.850000000000000   26.259999999999997
   111     2     3              0.06000   31.530000000000000   38.590000000000006   25.099999999999997
   112     2     3              0.06000   32.390000000000000   39.810000000000000   24.140000000000000
   113     2     7              0.16000   31.780000000000000   40.930000000000000   26.490000000000003
   114     2     6             -0.33000   32.019999999999994   41.690000000000000   27.700000000000000
   115     2     3              0.06000   31.760000000000000   41.620000000000000   25.640000000000000
   116     2     3              0.06000   30.800000000000000   40.450000000000000   26.570000000000000
   117     2     4              0.51000   31.140000000000000   42.680000000000000   27.990000000000000
   118     2     5             -0.43000   30.190000000000000   42.990000000000000   27.290000000000000
   119     2     2             -0.12000   31.460000000000000   43.390000000000000   29.290000000000000
   120     2     2             -0.12000   30.200000000000000   43.520000000000000   30.180000000000000
   121     2     3              0.06000   31.870000000000000   44.379999999999994   29.060000000000000
   122     2     3              0.06000   32.230000000000000   42.830000000000006   29.830000000000000
   123     2     2             -0.12000   30.510000000000000   44.280000000000000   31.480000000000000
   124     2     3              0.06000   29.820000000000000   42.519999999999994   30.410000000000000
   125     2     3              0.06000   29.420000000000000   44.050000000000006   29.620000000000000
   126     2     2             -0.12000   29.250000000000000   44.409999999999994   32.360000000000000
   127     2     3              0.06000   30.890000000000000   45.279999999999994   31.240000000000000
   128     2     3              0.06000   31.290000000000000   43.760000000000006   32.040000000000000
   129     2     1             -0.18000   29.530000000000000   45.220000000000000   33.640000000000000
   130     2     3              0.06000   28.880000000000000   43.419999999999994   32.629999999999994
   131     2     3              0.06000   28.450000000000003   44.909999999999994   31.790000000000000
   132     2     3              0.06000   30.310000000000000   44.730000000000000   34.230000000000006
   133     2     3              0.06000   28.630000000000000   45.290000000000000   34.250000000000000
   134     2     3              0.06000   29.870000000000000   46.230000000000006   33.390000000000000
   135     2     7              0.16000   32.930000000000000   38.870000000000000   27.460000000000000
   136     2     6             -0.33000   31.640000000000000   38.250000000000000   27.720000000000000
   137     2     3              0.06000   33.239999999999994   39.420000000000000   28.350000000000000
   138     2     3              0.06000   33.660000000000006   38.080000000000000   27.250000000000000
   139     2     4              0.51000   31.570000000000000   37.400000000000006   28.769999999999997
   140     2     5             -0.43000   32.500000000000000   37.120000000000006   29.500000000000000
   141     2     2             -0.12000   30.160000000000000   36.900000000000000   29.010000000000000
   142     2     2             -0.12000   30.130000000000000   35.370000000000000   29.230000000000000
   143     2     3              0.06000   29.520000000000000   37.160000000000006   28.159999999999997
   144     2     3              0.06000   29.750000000000000   37.420000000000000   29.880000000000000
   145     2     2             -0.12000   28.700000000000003   34.880000000000000   29.540000000000000
   146     2     3              0.06000   30.790000000000000   35.110000000000000   30.060000000000000
   147     2     3              0.06000   30.500000000000000   34.870000000000006   28.340000000000000
   148     2     2             -0.12000   28.670000000000003   33.350000000000000   29.750000000000000
   149     2     3              0.06000   28.030000000000000   35.150000000000000   28.730000000000003
   150     2     3              0.06000   28.330000000000003   35.370000000000000   30.450000000000000
   151     2     1             -0.18000   27.250000000000000   32.860000000000000   30.100000000000000
   152     2     3              0.06000   29.360000000000000   33.070000000000000   30.550000000000000
   153     2     3              0.06000   29.000000000000000   32.850000000000000   28.830000000000000
   154     2     3              0.06000   26.909999999999997   33.320000000000000   31.040000000000000
   155     2     3              0.06000   27.250000000000000   31.780000000000000   30.230000000000000
   156     2     3              0.06000   26.540000000000000   33.120000000000000   29.310000000000000
   157     2     7              0.16000   34.260000000000006   40.519999999999994   26.120000000000000
   158     2     6             -0.33000   34.310000000000000   41.409999999999994   24.980000000000003
   159     2     3              0.06000   35.019999999999994   39.750000000000000   26.000000000000000
   160     2     3              0.06000   34.480000000000000   41.090000000000006   27.029999999999997
   161     2     4              0.51000   35.450000000000000   42.120000000000000   24.790000000000000
   162     2     2             -0.12000   35.460000000000000   42.860000000000000   23.470000000000000
   163     2     2             -0.12000   36.730000000000006   42.569999999999994   22.650000000000003
   164     2     3              0.06000   35.400000000000000   43.930000000000000   23.680000000000000
   165     2     3              0.06000   34.580000000000000   42.599999999999994   22.890000000000000
   166     2     5             -0.43000   36.409999999999994   42.100000000000000   25.550000000000000
   167     2     2             -0.12000   36.820000000000000   41.080000000000000   22.220000000000000
   168     2     3              0.06000   37.620000000000000   42.839999999999994   23.230000000000000
   169     2     3              0.06000   36.730000000000006   43.190000000000000   21.750000000000000
   170     2     2             -0.12000   38.100000000000000   40.810000000000000   21.400000000000003
   171     2     3              0.06000   35.940000000000000   40.820000000000000   21.630000000000000
   172     2     3              0.06000   36.820000000000000   40.440000000000000   23.110000000000000
   173     2     1             -0.18000   38.190000000000000   39.330000000000000   20.979999999999997
   174     2     3              0.06000   38.980000000000006   41.070000000000000   22.000000000000000
   175     2     3              0.06000   38.110000000000000   41.440000000000000   20.510000000000000
   176     2     3              0.06000   38.210000000000000   38.680000000000000   21.850000000000000
   177     2     3              0.06000   39.100000000000000   39.159999999999994   20.400000000000000
   178     2     3              0.06000   37.340000000000006   39.060000000000000   20.350000000000000
   179     3     1             -0.18000   38.790000000000000   26.269999999999997   24.980000000000003
   180     3     2             -0.12000   37.420000000000000   26.900000000000000   25.240000000000003
   181     3     3              0.06000   38.780000000000000   25.710000000000000   24.040000000000000
   182     3     3              0.06000   39.050000000000000   25.570000000000000   25.790000000000003
   183     3     3              0.06000   39.570000000000000   27.029999999999997   24.920000000000003
   184     3     2             -0.12000   37.400000000000006   27.700000000000000   26.560000000000003
   185     3     3              0.06000   36.659999999999994   26.120000000000000   25.270000000000003
   186     3     3              0.06000   37.170000000000000   27.570000000000000   24.409999999999997
   187     3     2             -0.12000   36.010000000000000   28.330000000000003   26.800000000000000
   188     3     3              0.06000   38.159999999999994   28.479999999999997   26.530000000000000
   189     3     3              0.06000   37.640000000000000   27.029999999999997   27.390000000000000
   190     3     2             -0.12000   35.960000000000000   29.130000000000000   28.130000000000003
   191     3     3              0.06000   35.250000000000000   27.549999999999997   26.820000000000000
   192     3     3              0.06000   35.769999999999994   29.000000000000000   25.970000000000000
   193     3     4              0.51000   34.600000000000000   29.760000000000000   28.360000000000000
   194     3     3              0.06000   36.720000000000000   29.910000000000000   28.110000000000000
   195     3     3              0.06000   36.190000000000006   28.470000000000000   28.960000000000000
   196     3     5             -0.43000   33.650000000000006   29.620000000000000   27.620000000000000
   197     3     6             -0.33000   34.580000000000000   30.530000000000000   29.480000000000000
   198     3     7              0.16000   33.350000000000000   31.240000000000000   29.760000000000000
   199     3     8              0.00000   33.450000000000000   32.110000000000000   31.040000000000000
   200     3     3              0.06000   32.550000000000000   30.510000000000000   29.880000000000000
   201     3     3              0.06000   33.120000000000000   31.880000000000000   28.900000000000000
   202     3     7              0.16000   32.110000000000000   32.879999999999994   31.170000000000000
   203     3     6             -0.33000   32.080000000000000   33.720000000000000   32.350000000000000
   204     3     3              0.06000   31.960000000000000   33.510000000000000   30.290000000000000
   205     3     3              0.06000   31.280000000000000   32.170000000000000   31.230000000000006
   206     3     4              0.51000   30.970000000000000   34.460000000000000   32.550000000000000
   207     3     5             -0.43000   30.010000000000000   34.489999999999994   31.790000000000000
   208     3     2             -0.12000   31.020000000000000   35.270000000000000   33.830000000000000
   209     3     2             -0.12000   29.730000000000000   35.110000000000000   34.650000000000000
   210     3     3              0.06000   31.170000000000000   36.320000000000000   33.570000000000000
   211     3     3              0.06000   31.880000000000000   34.960000000000000   34.430000000000000
   212     3     2             -0.12000   29.760000000000000   35.970000000000000   35.930000000000000
   213     3     3              0.06000   29.600000000000000   34.050000000000000   34.920000000000000
   214     3     3              0.06000   28.870000000000000   35.390000000000000   34.040000000000000
   215     3     2             -0.12000   28.450000000000003   35.800000000000000   36.740000000000000
   216     3     3              0.06000   29.880000000000000   37.019999999999994   35.659999999999994
   217     3     3              0.06000   30.610000000000000   35.690000000000000   36.550000000000000
   218     3     1             -0.18000   28.460000000000000   36.690000000000000   38.000000000000000
   219     3     3              0.06000   28.340000000000000   34.750000000000000   37.050000000000000
   220     3     3              0.06000   27.590000000000000   36.060000000000000   36.120000000000006
   221     3     3              0.06000   29.300000000000000   36.440000000000000   38.650000000000006
   222     3     3              0.06000   27.530000000000000   36.550000000000000   38.560000000000000
   223     3     3              0.06000   28.530000000000000   37.750000000000000   37.720000000000000
   224     3     7              0.16000   33.700000000000000   31.230000000000006   32.280000000000000
   225     3     6             -0.33000   32.599999999999994   30.300000000000000   32.519999999999994
   226     3     3              0.06000   33.809999999999994   31.860000000000000   33.159999999999994
   227     3     3              0.06000   34.620000000000006   30.650000000000000   32.150000000000000
   228     3     4              0.51000   32.690000000000000   29.500000000000000   33.600000000000000
   229     3     5             -0.43000   33.620000000000006   29.500000000000000   34.380000000000000
   230     3     2             -0.12000   31.440000000000000   28.660000000000000   33.809999999999994
   231     3     2             -0.12000   31.790000000000000   27.189999999999997   34.100000000000000
   232     3     3              0.06000   30.810000000000000   28.720000000000000   32.920000000000000
   233     3     3              0.06000   30.870000000000000   29.089999999999994   34.640000000000000
   234     3     2             -0.12000   30.520000000000000   26.349999999999997   34.370000000000000
   235     3     3              0.06000   32.450000000000000   27.130000000000003   34.970000000000000
   236     3     3              0.06000   32.330000000000000   26.770000000000000   33.250000000000000
   237     3     2             -0.12000   30.880000000000000   24.880000000000000   34.650000000000000
   238     3     3              0.06000   29.850000000000000   26.419999999999997   33.519999999999994
   239     3     3              0.06000   30.000000000000000   26.770000000000000   35.240000000000000
   240     3     1             -0.18000   29.610000000000000   24.049999999999997   34.970000000000000
   241     3     3              0.06000   31.570000000000000   24.810000000000000   35.490000000000000
   242     3     3              0.06000   31.370000000000000   24.450000000000000   33.769999999999994
   243     3     3              0.06000   29.120000000000000   24.439999999999997   35.860000000000000
   244     3     3              0.06000   29.880000000000000   23.010000000000000   35.150000000000000
   245     3     3              0.06000   28.910000000000000   24.089999999999997   34.129999999999994
   246     3     7              0.16000   34.630000000000000   33.110000000000000   30.930000000000000
   247     3     6             -0.33000   34.519999999999994   33.950000000000000   29.740000000000000
   248     3     3              0.06000   35.570000000000000   32.559999999999994   30.870000000000000
   249     3     3              0.06000   34.640000000000000   33.750000000000000   31.810000000000000
   250     3     4              0.51000   35.440000000000000   34.920000000000000   29.580000000000000
   251     3     2             -0.12000   35.330000000000000   35.590000000000006   28.220000000000000
   252     3     2             -0.12000   36.680000000000000   35.610000000000000   27.470000000000000
   253     3     3              0.06000   34.990000000000000   36.620000000000000   28.380000000000003
   254     3     3              0.06000   34.580000000000000   35.089999999999994   27.610000000000000
   255     3     5             -0.43000   36.330000000000000   35.170000000000000   30.370000000000000
   256     3     2             -0.12000   37.170000000000000   34.180000000000000   27.120000000000000